TITLE = "Bivariate normal distribution density"
VARIABLES = "y", "x", "z"
ZONE T = "Numerical", I = 100, J = 100, F = Point
-10 -10 0.00471538
-10 -9.9 0.00475716
-10 -9.8 0.00479868
-10 -9.7 0.00483991
-10 -9.6 0.00488085
-10 -9.5 0.00492147
-10 -9.4 0.00496177
-10 -9.3 0.00500174
-10 -9.2 0.00504135
-10 -9.1 0.0050806
-10 -9 0.00511947
-10 -8.9 0.00515796
-10 -8.8 0.00519604
-10 -8.7 0.0052337
-10 -8.6 0.00527093
-10 -8.5 0.00530772
-10 -8.4 0.00534406
-10 -8.3 0.00537992
-10 -8.2 0.00541531
-10 -8.1 0.0054502
-10 -8 0.00548458
-10 -7.9 0.00551845
-10 -7.8 0.00555178
-10 -7.7 0.00558457
-10 -7.6 0.0056168
-10 -7.5 0.00564847
-10 -7.4 0.00567956
-10 -7.3 0.00571006
-10 -7.2 0.00573996
-10 -7.1 0.00576924
-10 -7 0.0057979
-10 -6.9 0.00582593
-10 -6.8 0.00585331
-10 -6.7 0.00588004
-10 -6.6 0.0059061
-10 -6.5 0.00593148
-10 -6.4 0.00595618
-10 -6.3 0.00598019
-10 -6.2 0.00600349
-10 -6.1 0.00602608
-10 -6 0.00604794
-10 -5.9 0.00606908
-10 -5.8 0.00608948
-10 -5.7 0.00610913
-10 -5.6 0.00612803
-10 -5.5 0.00614617
-10 -5.4 0.00616354
-10 -5.3 0.00618014
-10 -5.2 0.00619595
-10 -5.1 0.00621098
-10 -5 0.00622521
-10 -4.9 0.00623864
-10 -4.8 0.00625127
-10 -4.7 0.00626309
-10 -4.6 0.0062741
-10 -4.5 0.00628428
-10 -4.4 0.00629365
-10 -4.3 0.00630218
-10 -4.2 0.00630989
-10 -4.1 0.00631677
-10 -4 0.0063228
-10 -3.9 0.00632801
-10 -3.8 0.00633237
-10 -3.7 0.00633588
-10 -3.6 0.00633856
-10 -3.5 0.00634039
-10 -3.4 0.00634138
-10 -3.3 0.00634152
-10 -3.2 0.00634081
-10 -3.1 0.00633926
-10 -3 0.00633687
-10 -2.9 0.00633363
-10 -2.8 0.00632955
-10 -2.7 0.00632463
-10 -2.6 0.00631887
-10 -2.5 0.00631227
-10 -2.4 0.00630484
-10 -2.3 0.00629658
-10 -2.2 0.0062875
-10 -2.1 0.00627758
-10 -2 0.00626685
-10 -1.9 0.0062553
-10 -1.8 0.00624294
-10 -1.7 0.00622978
-10 -1.6 0.00621581
-10 -1.5 0.00620105
-10 -1.4 0.0061855
-10 -1.3 0.00616916
-10 -1.2 0.00615205
-10 -1.1 0.00613416
-10 -1 0.00611552
-10 -0.9 0.00609612
-10 -0.8 0.00607596
-10 -0.7 0.00605507
-10 -0.6 0.00603345
-10 -0.5 0.0060111
-10 -0.4 0.00598803
-10 -0.3 0.00596426
-10 -0.2 0.00593979
-10 -0.1 0.00591463
-10 -1.87905e-14 0.0058888
-10 0.1 0.00586229
-10 0.2 0.00583513
-10 0.3 0.00580732
-10 0.4 0.00577886
-10 0.5 0.00574979
-10 0.6 0.00572009
-10 0.7 0.00568979
-10 0.8 0.0056589
-10 0.9 0.00562742
-10 1 0.00559538
-10 1.1 0.00556277
-10 1.2 0.00552962
-10 1.3 0.00549593
-10 1.4 0.00546171
-10 1.5 0.00542699
-10 1.6 0.00539177
-10 1.7 0.00535606
-10 1.8 0.00531989
-10 1.9 0.00528325
-10 2 0.00524616
-10 2.1 0.00520864
-10 2.2 0.0051707
-10 2.3 0.00513235
-10 2.4 0.0050936
-10 2.5 0.00505447
-10 2.6 0.00501498
-10 2.7 0.00497513
-10 2.8 0.00493494
-10 2.9 0.00489442
-10 3 0.00485359
-10 3.1 0.00481245
-10 3.2 0.00477103
-10 3.3 0.00472934
-10 3.4 0.00468738
-10 3.5 0.00464518
-10 3.6 0.00460274
-10 3.7 0.00456008
-10 3.8 0.00451722
-10 3.9 0.00447416
-10 4 0.00443092
-10 4.1 0.00438751
-10 4.2 0.00434395
-10 4.3 0.00430025
-10 4.4 0.00425642
-10 4.5 0.00421248
-10 4.6 0.00416843
-10 4.7 0.0041243
-10 4.8 0.00408009
-10 4.9 0.00403581
-10 5 0.00399148
-10 5.1 0.00394712
-10 5.2 0.00390272
-10 5.3 0.00385831
-10 5.4 0.0038139
-10 5.5 0.00376949
-10 5.6 0.00372511
-10 5.7 0.00368076
-10 5.8 0.00363645
-10 5.9 0.00359219
-10 6 0.003548
-10 6.1 0.00350389
-10 6.2 0.00345986
-10 6.3 0.00341594
-10 6.4 0.00337212
-10 6.5 0.00332841
-10 6.6 0.00328484
-10 6.7 0.00324141
-10 6.8 0.00319812
-10 6.9 0.00315499
-10 7 0.00311203
-10 7.1 0.00306924
-10 7.2 0.00302664
-10 7.3 0.00298423
-10 7.4 0.00294202
-10 7.5 0.00290002
-10 7.6 0.00285824
-10 7.7 0.00281669
-10 7.8 0.00277537
-10 7.9 0.0027343
-10 8 0.00269347
-10 8.1 0.0026529
-10 8.2 0.00261259
-10 8.3 0.00257255
-10 8.4 0.00253278
-10 8.5 0.0024933
-10 8.6 0.00245411
-10 8.7 0.00241521
-10 8.8 0.00237661
-10 8.9 0.00233831
-10 9 0.00230033
-10 9.1 0.00226266
-10 9.2 0.00222531
-10 9.3 0.00218829
-10 9.4 0.00215159
-10 9.5 0.00211523
-10 9.6 0.0020792
-10 9.7 0.00204352
-10 9.8 0.00200818
-10 9.9 0.00197319
-10 10 0.00193855
-9.9 -10 0.00472223
-9.9 -9.9 0.00476429
-9.9 -9.8 0.00480608
-9.9 -9.7 0.00484759
-9.9 -9.6 0.00488881
-9.9 -9.5 0.00492972
-9.9 -9.4 0.00497031
-9.9 -9.3 0.00501056
-9.9 -9.2 0.00505047
-9.9 -9.1 0.00509002
-9.9 -9 0.00512919
-9.9 -8.9 0.00516798
-9.9 -8.8 0.00520636
-9.9 -8.7 0.00524433
-9.9 -8.6 0.00528188
-9.9 -8.5 0.00531898
-9.9 -8.4 0.00535563
-9.9 -8.3 0.00539181
-9.9 -8.2 0.00542751
-9.9 -8.1 0.00546273
-9.9 -8 0.00549743
-9.9 -7.9 0.00553162
-9.9 -7.8 0.00556528
-9.9 -7.7 0.0055984
-9.9 -7.6 0.00563097
-9.9 -7.5 0.00566297
-9.9 -7.4 0.00569439
-9.9 -7.3 0.00572522
-9.9 -7.2 0.00575545
-9.9 -7.1 0.00578508
-9.9 -7 0.00581407
-9.9 -6.9 0.00584244
-9.9 -6.8 0.00587016
-9.9 -6.7 0.00589722
-9.9 -6.6 0.00592362
-9.9 -6.5 0.00594935
-9.9 -6.4 0.00597439
-9.9 -6.3 0.00599873
-9.9 -6.2 0.00602237
-9.9 -6.1 0.0060453
-9.9 -6 0.00606751
-9.9 -5.9 0.00608898
-9.9 -5.8 0.00610972
-9.9 -5.7 0.00612971
-9.9 -5.6 0.00614895
-9.9 -5.5 0.00616742
-9.9 -5.4 0.00618513
-9.9 -5.3 0.00620206
-9.9 -5.2 0.00621821
-9.9 -5.1 0.00623356
-9.9 -5 0.00624812
-9.9 -4.9 0.00626189
-9.9 -4.8 0.00627484
-9.9 -4.7 0.00628698
-9.9 -4.6 0.00629831
-9.9 -4.5 0.00630882
-9.9 -4.4 0.0063185
-9.9 -4.3 0.00632735
-9.9 -4.2 0.00633537
-9.9 -4.1 0.00634255
-9.9 -4 0.0063489
-9.9 -3.9 0.0063544
-9.9 -3.8 0.00635906
-9.9 -3.7 0.00636288
-9.9 -3.6 0.00636585
-9.9 -3.5 0.00636797
-9.9 -3.4 0.00636925
-9.9 -3.3 0.00636967
-9.9 -3.2 0.00636925
-9.9 -3.1 0.00636797
-9.9 -3 0.00636585
-9.9 -2.9 0.00636288
-9.9 -2.8 0.00635906
-9.9 -2.7 0.0063544
-9.9 -2.6 0.0063489
-9.9 -2.5 0.00634255
-9.9 -2.4 0.00633537
-9.9 -2.3 0.00632735
-9.9 -2.2 0.0063185
-9.9 -2.1 0.00630882
-9.9 -2 0.00629831
-9.9 -1.9 0.00628698
-9.9 -1.8 0.00627484
-9.9 -1.7 0.00626189
-9.9 -1.6 0.00624812
-9.9 -1.5 0.00623356
-9.9 -1.4 0.00621821
-9.9 -1.3 0.00620206
-9.9 -1.2 0.00618513
-9.9 -1.1 0.00616742
-9.9 -1 0.00614895
-9.9 -0.9 0.00612971
-9.9 -0.8 0.00610972
-9.9 -0.7 0.00608898
-9.9 -0.6 0.00606751
-9.9 -0.5 0.0060453
-9.9 -0.4 0.00602237
-9.9 -0.3 0.00599873
-9.9 -0.2 0.00597439
-9.9 -0.1 0.00594935
-9.9 -1.87905e-14 0.00592362
-9.9 0.1 0.00589722
-9.9 0.2 0.00587016
-9.9 0.3 0.00584244
-9.9 0.4 0.00581407
-9.9 0.5 0.00578508
-9.9 0.6 0.00575545
-9.9 0.7 0.00572522
-9.9 0.8 0.00569439
-9.9 0.9 0.00566297
-9.9 1 0.00563097
-9.9 1.1 0.0055984
-9.9 1.2 0.00556528
-9.9 1.3 0.00553162
-9.9 1.4 0.00549743
-9.9 1.5 0.00546273
-9.9 1.6 0.00542751
-9.9 1.7 0.00539181
-9.9 1.8 0.00535563
-9.9 1.9 0.00531898
-9.9 2 0.00528188
-9.9 2.1 0.00524433
-9.9 2.2 0.00520636
-9.9 2.3 0.00516798
-9.9 2.4 0.00512919
-9.9 2.5 0.00509002
-9.9 2.6 0.00505047
-9.9 2.7 0.00501056
-9.9 2.8 0.00497031
-9.9 2.9 0.00492972
-9.9 3 0.00488881
-9.9 3.1 0.00484759
-9.9 3.2 0.00480608
-9.9 3.3 0.00476429
-9.9 3.4 0.00472223
-9.9 3.5 0.00467992
-9.9 3.6 0.00463737
-9.9 3.7 0.0045946
-9.9 3.8 0.00455161
-9.9 3.9 0.00450843
-9.9 4 0.00446505
-9.9 4.1 0.00442151
-9.9 4.2 0.00437781
-9.9 4.3 0.00433396
-9.9 4.4 0.00428998
-9.9 4.5 0.00424588
-9.9 4.6 0.00420167
-9.9 4.7 0.00415736
-9.9 4.8 0.00411298
-9.9 4.9 0.00406853
-9.9 5 0.00402402
-9.9 5.1 0.00397947
-9.9 5.2 0.00393488
-9.9 5.3 0.00389028
-9.9 5.4 0.00384567
-9.9 5.5 0.00380107
-9.9 5.6 0.00375648
-9.9 5.7 0.00371192
-9.9 5.8 0.00366739
-9.9 5.9 0.00362292
-9.9 6 0.00357852
-9.9 6.1 0.00353418
-9.9 6.2 0.00348993
-9.9 6.3 0.00344577
-9.9 6.4 0.00340172
-9.9 6.5 0.00335778
-9.9 6.6 0.00331397
-9.9 6.7 0.0032703
-9.9 6.8 0.00322677
-9.9 6.9 0.00318339
-9.9 7 0.00314018
-9.9 7.1 0.00309715
-9.9 7.2 0.00305429
-9.9 7.3 0.00301163
-9.9 7.4 0.00296917
-9.9 7.5 0.00292691
-9.9 7.6 0.00288487
-9.9 7.7 0.00284306
-9.9 7.8 0.00280148
-9.9 7.9 0.00276014
-9.9 8 0.00271905
-9.9 8.1 0.00267821
-9.9 8.2 0.00263763
-9.9 8.3 0.00259732
-9.9 8.4 0.00255729
-9.9 8.5 0.00251754
-9.9 8.6 0.00247807
-9.9 8.7 0.0024389
-9.9 8.8 0.00240003
-9.9 8.9 0.00236146
-9.9 9 0.00232321
-9.9 9.1 0.00228526
-9.9 9.2 0.00224764
-9.9 9.3 0.00221034
-9.9 9.4 0.00217338
-9.9 9.5 0.00213674
-9.9 9.6 0.00210044
-9.9 9.7 0.00206449
-9.9 9.8 0.00202887
-9.9 9.9 0.00199361
-9.9 10 0.0019587
-9.8 -10 0.00472881
-9.8 -9.9 0.00477114
-9.8 -9.8 0.0048132
-9.8 -9.7 0.00485499
-9.8 -9.6 0.00489649
-9.8 -9.5 0.00493768
-9.8 -9.4 0.00497856
-9.8 -9.3 0.00501911
-9.8 -9.2 0.00505931
-9.8 -9.1 0.00509915
-9.8 -9 0.00513862
-9.8 -8.9 0.00517771
-9.8 -8.8 0.0052164
-9.8 -8.7 0.00525468
-9.8 -8.6 0.00529253
-9.8 -8.5 0.00532994
-9.8 -8.4 0.00536691
-9.8 -8.3 0.00540341
-9.8 -8.2 0.00543943
-9.8 -8.1 0.00547496
-9.8 -8 0.00550999
-9.8 -7.9 0.0055445
-9.8 -7.8 0.00557849
-9.8 -7.7 0.00561194
-9.8 -7.6 0.00564483
-9.8 -7.5 0.00567716
-9.8 -7.4 0.00570892
-9.8 -7.3 0.00574008
-9.8 -7.2 0.00577065
-9.8 -7.1 0.00580061
-9.8 -7 0.00582994
-9.8 -6.9 0.00585865
-9.8 -6.8 0.0058867
-9.8 -6.7 0.00591411
-9.8 -6.6 0.00594085
-9.8 -6.5 0.00596691
-9.8 -6.4 0.00599229
-9.8 -6.3 0.00601698
-9.8 -6.2 0.00604096
-9.8 -6.1 0.00606423
-9.8 -6 0.00608677
-9.8 -5.9 0.00610859
-9.8 -5.8 0.00612967
-9.8 -5.7 0.00615
-9.8 -5.6 0.00616957
-9.8 -5.5 0.00618838
-9.8 -5.4 0.00620642
-9.8 -5.3 0.00622369
-9.8 -5.2 0.00624017
-9.8 -5.1 0.00625586
-9.8 -5 0.00627075
-9.8 -4.9 0.00628484
-9.8 -4.8 0.00629812
-9.8 -4.7 0.00631059
-9.8 -4.6 0.00632224
-9.8 -4.5 0.00633307
-9.8 -4.4 0.00634307
-9.8 -4.3 0.00635224
-9.8 -4.2 0.00636057
-9.8 -4.1 0.00636807
-9.8 -4 0.00637472
-9.8 -3.9 0.00638053
-9.8 -3.8 0.0063855
-9.8 -3.7 0.00638961
-9.8 -3.6 0.00639288
-9.8 -3.5 0.0063953
-9.8 -3.4 0.00639686
-9.8 -3.3 0.00639757
-9.8 -3.2 0.00639743
-9.8 -3.1 0.00639643
-9.8 -3 0.00639459
-9.8 -2.9 0.00639189
-9.8 -2.8 0.00638834
-9.8 -2.7 0.00638394
-9.8 -2.6 0.00637869
-9.8 -2.5 0.0063726
-9.8 -2.4 0.00636566
-9.8 -2.3 0.00635789
-9.8 -2.2 0.00634927
-9.8 -2.1 0.00633983
-9.8 -2 0.00632955
-9.8 -1.9 0.00631845
-9.8 -1.8 0.00630653
-9.8 -1.7 0.00629379
-9.8 -1.6 0.00628023
-9.8 -1.5 0.00626588
-9.8 -1.4 0.00625072
-9.8 -1.3 0.00623476
-9.8 -1.2 0.00621802
-9.8 -1.1 0.0062005
-9.8 -1 0.0061822
-9.8 -0.9 0.00616313
-9.8 -0.8 0.0061433
-9.8 -0.7 0.00612272
-9.8 -0.6 0.0061014
-9.8 -0.5 0.00607934
-9.8 -0.4 0.00605655
-9.8 -0.3 0.00603304
-9.8 -0.2 0.00600883
-9.8 -0.1 0.00598391
-9.8 -1.87905e-14 0.0059583
-9.8 0.1 0.00593201
-9.8 0.2 0.00590505
-9.8 0.3 0.00587742
-9.8 0.4 0.00584915
-9.8 0.5 0.00582023
-9.8 0.6 0.00579069
-9.8 0.7 0.00576053
-9.8 0.8 0.00572976
-9.8 0.9 0.0056984
-9.8 1 0.00566645
-9.8 1.1 0.00563393
-9.8 1.2 0.00560085
-9.8 1.3 0.00556722
-9.8 1.4 0.00553306
-9.8 1.5 0.00549837
-9.8 1.6 0.00546317
-9.8 1.7 0.00542747
-9.8 1.8 0.00539129
-9.8 1.9 0.00535464
-9.8 2 0.00531752
-9.8 2.1 0.00527996
-9.8 2.2 0.00524196
-9.8 2.3 0.00520355
-9.8 2.4 0.00516472
-9.8 2.5 0.00512551
-9.8 2.6 0.00508591
-9.8 2.7 0.00504595
-9.8 2.8 0.00500563
-9.8 2.9 0.00496497
-9.8 3 0.00492399
-9.8 3.1 0.00488269
-9.8 3.2 0.00484109
-9.8 3.3 0.00479921
-9.8 3.4 0.00475706
-9.8 3.5 0.00471465
-9.8 3.6 0.00467199
-9.8 3.7 0.0046291
-9.8 3.8 0.004586
-9.8 3.9 0.00454269
-9.8 4 0.00449918
-9.8 4.1 0.00445551
-9.8 4.2 0.00441166
-9.8 4.3 0.00436767
-9.8 4.4 0.00432354
-9.8 4.5 0.00427928
-9.8 4.6 0.00423491
-9.8 4.7 0.00419045
-9.8 4.8 0.00414589
-9.8 4.9 0.00410127
-9.8 5 0.00405658
-9.8 5.1 0.00401185
-9.8 5.2 0.00396708
-9.8 5.3 0.00392228
-9.8 5.4 0.00387748
-9.8 5.5 0.00383267
-9.8 5.6 0.00378788
-9.8 5.7 0.00374312
-9.8 5.8 0.00369838
-9.8 5.9 0.0036537
-9.8 6 0.00360908
-9.8 6.1 0.00356452
-9.8 6.2 0.00352005
-9.8 6.3 0.00347566
-9.8 6.4 0.00343138
-9.8 6.5 0.00338721
-9.8 6.6 0.00334317
-9.8 6.7 0.00329925
-9.8 6.8 0.00325548
-9.8 6.9 0.00321186
-9.8 7 0.00316841
-9.8 7.1 0.00312512
-9.8 7.2 0.00308202
-9.8 7.3 0.0030391
-9.8 7.4 0.00299639
-9.8 7.5 0.00295388
-9.8 7.6 0.00291158
-9.8 7.7 0.00286951
-9.8 7.8 0.00282767
-9.8 7.9 0.00278606
-9.8 8 0.00274471
-9.8 8.1 0.0027036
-9.8 8.2 0.00266276
-9.8 8.3 0.00262218
-9.8 8.4 0.00258188
-9.8 8.5 0.00254186
-9.8 8.6 0.00250213
-9.8 8.7 0.00246268
-9.8 8.8 0.00242354
-9.8 8.9 0.0023847
-9.8 9 0.00234617
-9.8 9.1 0.00230796
-9.8 9.2 0.00227006
-9.8 9.3 0.00223249
-9.8 9.4 0.00219525
-9.8 9.5 0.00215834
-9.8 9.6 0.00212177
-9.8 9.7 0.00208554
-9.8 9.8 0.00204966
-9.8 9.9 0.00201413
-9.8 10 0.00197894
-9.7 -10 0.00473512
-9.7 -9.9 0.00477772
-9.7 -9.8 0.00482005
-9.7 -9.7 0.00486212
-9.7 -9.6 0.00490389
-9.7 -9.5 0.00494537
-9.7 -9.4 0.00498653
-9.7 -9.3 0.00502737
-9.7 -9.2 0.00506786
-9.7 -9.1 0.005108
-9.7 -9 0.00514777
-9.7 -8.9 0.00518715
-9.7 -8.8 0.00522615
-9.7 -8.7 0.00526473
-9.7 -8.6 0.00530289
-9.7 -8.5 0.00534061
-9.7 -8.4 0.00537789
-9.7 -8.3 0.0054147
-9.7 -8.2 0.00545104
-9.7 -8.1 0.0054869
-9.7 -8 0.00552225
-9.7 -7.9 0.00555709
-9.7 -7.8 0.0055914
-9.7 -7.7 0.00562517
-9.7 -7.6 0.0056584
-9.7 -7.5 0.00569106
-9.7 -7.4 0.00572314
-9.7 -7.3 0.00575464
-9.7 -7.2 0.00578555
-9.7 -7.1 0.00581584
-9.7 -7 0.00584551
-9.7 -6.9 0.00587455
-9.7 -6.8 0.00590295
-9.7 -6.7 0.00593069
-9.7 -6.6 0.00595777
-9.7 -6.5 0.00598417
-9.7 -6.4 0.00600989
-9.7 -6.3 0.00603492
-9.7 -6.2 0.00605924
-9.7 -6.1 0.00608285
-9.7 -6 0.00610574
-9.7 -5.9 0.0061279
-9.7 -5.8 0.00614931
-9.7 -5.7 0.00616998
-9.7 -5.6 0.0061899
-9.7 -5.5 0.00620905
-9.7 -5.4 0.00622742
-9.7 -5.3 0.00624502
-9.7 -5.2 0.00626184
-9.7 -5.1 0.00627786
-9.7 -5 0.00629309
-9.7 -4.9 0.00630751
-9.7 -4.8 0.00632112
-9.7 -4.7 0.00633391
-9.7 -4.6 0.00634589
-9.7 -4.5 0.00635704
-9.7 -4.4 0.00636736
-9.7 -4.3 0.00637685
-9.7 -4.2 0.0063855
-9.7 -4.1 0.00639331
-9.7 -4 0.00640027
-9.7 -3.9 0.00640639
-9.7 -3.8 0.00641166
-9.7 -3.7 0.00641608
-9.7 -3.6 0.00641964
-9.7 -3.5 0.00642236
-9.7 -3.4 0.00642421
-9.7 -3.3 0.00642521
-9.7 -3.2 0.00642535
-9.7 -3.1 0.00642464
-9.7 -3 0.00642307
-9.7 -2.9 0.00642064
-9.7 -2.8 0.00641736
-9.7 -2.7 0.00641323
-9.7 -2.6 0.00640824
-9.7 -2.5 0.00640241
-9.7 -2.4 0.00639572
-9.7 -2.3 0.00638819
-9.7 -2.2 0.00637982
-9.7 -2.1 0.00637062
-9.7 -2 0.00636057
-9.7 -1.9 0.0063497
-9.7 -1.8 0.006338
-9.7 -1.7 0.00632547
-9.7 -1.6 0.00631213
-9.7 -1.5 0.00629798
-9.7 -1.4 0.00628303
-9.7 -1.3 0.00626727
-9.7 -1.2 0.00625072
-9.7 -1.1 0.00623338
-9.7 -1 0.00621526
-9.7 -0.9 0.00619636
-9.7 -0.8 0.00617671
-9.7 -0.7 0.00615629
-9.7 -0.6 0.00613512
-9.7 -0.5 0.00611321
-9.7 -0.4 0.00609056
-9.7 -0.3 0.00606719
-9.7 -0.2 0.00604311
-9.7 -0.1 0.00601831
-9.7 -1.87905e-14 0.00599282
-9.7 0.1 0.00596665
-9.7 0.2 0.00593979
-9.7 0.3 0.00591227
-9.7 0.4 0.00588409
-9.7 0.5 0.00585526
-9.7 0.6 0.0058258
-9.7 0.7 0.00579571
-9.7 0.8 0.00576501
-9.7 0.9 0.00573371
-9.7 1 0.00570182
-9.7 1.1 0.00566935
-9.7 1.2 0.00563631
-9.7 1.3 0.00560272
-9.7 1.4 0.00556858
-9.7 1.5 0.00553392
-9.7 1.6 0.00549874
-9.7 1.7 0.00546305
-9.7 1.8 0.00542687
-9.7 1.9 0.00539021
-9.7 2 0.00535309
-9.7 2.1 0.00531551
-9.7 2.2 0.0052775
-9.7 2.3 0.00523905
-9.7 2.4 0.0052002
-9.7 2.5 0.00516094
-9.7 2.6 0.00512129
-9.7 2.7 0.00508128
-9.7 2.8 0.0050409
-9.7 2.9 0.00500018
-9.7 3 0.00495913
-9.7 3.1 0.00491775
-9.7 3.2 0.00487607
-9.7 3.3 0.00483411
-9.7 3.4 0.00479186
-9.7 3.5 0.00474935
-9.7 3.6 0.00470659
-9.7 3.7 0.00466359
-9.7 3.8 0.00462037
-9.7 3.9 0.00457693
-9.7 4 0.00453331
-9.7 4.1 0.0044895
-9.7 4.2 0.00444552
-9.7 4.3 0.00440138
-9.7 4.4 0.0043571
-9.7 4.5 0.00431269
-9.7 4.6 0.00426817
-9.7 4.7 0.00422354
-9.7 4.8 0.00417882
-9.7 4.9 0.00413403
-9.7 5 0.00408916
-9.7 5.1 0.00404425
-9.7 5.2 0.0039993
-9.7 5.3 0.00395431
-9.7 5.4 0.00390932
-9.7 5.5 0.00386432
-9.7 5.6 0.00381933
-9.7 5.7 0.00377435
-9.7 5.8 0.00372942
-9.7 5.9 0.00368452
-9.7 6 0.00363968
-9.7 6.1 0.00359491
-9.7 6.2 0.00355021
-9.7 6.3 0.0035056
-9.7 6.4 0.0034611
-9.7 6.5 0.0034167
-9.7 6.6 0.00337242
-9.7 6.7 0.00332827
-9.7 6.8 0.00328426
-9.7 6.9 0.0032404
-9.7 7 0.0031967
-9.7 7.1 0.00315317
-9.7 7.2 0.00310981
-9.7 7.3 0.00306665
-9.7 7.4 0.00302368
-9.7 7.5 0.00298091
-9.7 7.6 0.00293836
-9.7 7.7 0.00289603
-9.7 7.8 0.00285393
-9.7 7.9 0.00281206
-9.7 8 0.00277044
-9.7 8.1 0.00272908
-9.7 8.2 0.00268797
-9.7 8.3 0.00264712
-9.7 8.4 0.00260656
-9.7 8.5 0.00256627
-9.7 8.6 0.00252626
-9.7 8.7 0.00248655
-9.7 8.8 0.00244714
-9.7 8.9 0.00240803
-9.7 9 0.00236922
-9.7 9.1 0.00233074
-9.7 9.2 0.00229257
-9.7 9.3 0.00225473
-9.7 9.4 0.00221721
-9.7 9.5 0.00218003
-9.7 9.6 0.00214319
-9.7 9.7 0.00210669
-9.7 9.8 0.00207054
-9.7 9.9 0.00203473
-9.7 10 0.00199928
-9.6 -10 0.00474116
-9.6 -9.9 0.00478402
-9.6 -9.8 0.00482663
-9.6 -9.7 0.00486896
-9.6 -9.6 0.00491102
-9.6 -9.5 0.00495277
-9.6 -9.4 0.00499422
-9.6 -9.3 0.00503534
-9.6 -9.2 0.00507612
-9.6 -9.1 0.00511655
-9.6 -9 0.00515662
-9.6 -8.9 0.00519631
-9.6 -8.8 0.0052356
-9.6 -8.7 0.00527449
-9.6 -8.6 0.00531295
-9.6 -8.5 0.00535099
-9.6 -8.4 0.00538858
-9.6 -8.3 0.00542571
-9.6 -8.2 0.00546236
-9.6 -8.1 0.00549853
-9.6 -8 0.00553421
-9.6 -7.9 0.00556937
-9.6 -7.8 0.005604
-9.6 -7.7 0.0056381
-9.6 -7.6 0.00567166
-9.6 -7.5 0.00570465
-9.6 -7.4 0.00573707
-9.6 -7.3 0.0057689
-9.6 -7.2 0.00580014
-9.6 -7.1 0.00583076
-9.6 -7 0.00586077
-9.6 -6.9 0.00589015
-9.6 -6.8 0.00591888
-9.6 -6.7 0.00594697
-9.6 -6.6 0.00597439
-9.6 -6.5 0.00600113
-9.6 -6.4 0.00602719
-9.6 -6.3 0.00605256
-9.6 -6.2 0.00607722
-9.6 -6.1 0.00610117
-9.6 -6 0.0061244
-9.6 -5.9 0.0061469
-9.6 -5.8 0.00616866
-9.6 -5.7 0.00618967
-9.6 -5.6 0.00620992
-9.6 -5.5 0.00622941
-9.6 -5.4 0.00624812
-9.6 -5.3 0.00626606
-9.6 -5.2 0.00628321
-9.6 -5.1 0.00629957
-9.6 -5 0.00631513
-9.6 -4.9 0.00632988
-9.6 -4.8 0.00634382
-9.6 -4.7 0.00635695
-9.6 -4.6 0.00636925
-9.6 -4.5 0.00638072
-9.6 -4.4 0.00639137
-9.6 -4.3 0.00640117
-9.6 -4.2 0.00641014
-9.6 -4.1 0.00641827
-9.6 -4 0.00642554
-9.6 -3.9 0.00643197
-9.6 -3.8 0.00643755
-9.6 -3.7 0.00644227
-9.6 -3.6 0.00644614
-9.6 -3.5 0.00644915
-9.6 -3.4 0.0064513
-9.6 -3.3 0.00645259
-9.6 -3.2 0.00645302
-9.6 -3.1 0.00645259
-9.6 -3 0.0064513
-9.6 -2.9 0.00644915
-9.6 -2.8 0.00644614
-9.6 -2.7 0.00644227
-9.6 -2.6 0.00643755
-9.6 -2.5 0.00643197
-9.6 -2.4 0.00642554
-9.6 -2.3 0.00641827
-9.6 -2.2 0.00641014
-9.6 -2.1 0.00640117
-9.6 -2 0.00639137
-9.6 -1.9 0.00638072
-9.6 -1.8 0.00636925
-9.6 -1.7 0.00635695
-9.6 -1.6 0.00634382
-9.6 -1.5 0.00632988
-9.6 -1.4 0.00631513
-9.6 -1.3 0.00629957
-9.6 -1.2 0.00628321
-9.6 -1.1 0.00626606
-9.6 -1 0.00624812
-9.6 -0.9 0.00622941
-9.6 -0.8 0.00620992
-9.6 -0.7 0.00618967
-9.6 -0.6 0.00616866
-9.6 -0.5 0.0061469
-9.6 -0.4 0.0061244
-9.6 -0.3 0.00610117
-9.6 -0.2 0.00607722
-9.6 -0.1 0.00605256
-9.6 -1.87905e-14 0.00602719
-9.6 0.1 0.00600113
-9.6 0.2 0.00597439
-9.6 0.3 0.00594697
-9.6 0.4 0.00591888
-9.6 0.5 0.00589015
-9.6 0.6 0.00586077
-9.6 0.7 0.00583076
-9.6 0.8 0.00580014
-9.6 0.9 0.0057689
-9.6 1 0.00573707
-9.6 1.1 0.00570465
-9.6 1.2 0.00567166
-9.6 1.3 0.0056381
-9.6 1.4 0.005604
-9.6 1.5 0.00556937
-9.6 1.6 0.00553421
-9.6 1.7 0.00549853
-9.6 1.8 0.00546236
-9.6 1.9 0.00542571
-9.6 2 0.00538858
-9.6 2.1 0.00535099
-9.6 2.2 0.00531295
-9.6 2.3 0.00527449
-9.6 2.4 0.0052356
-9.6 2.5 0.00519631
-9.6 2.6 0.00515662
-9.6 2.7 0.00511655
-9.6 2.8 0.00507612
-9.6 2.9 0.00503534
-9.6 3 0.00499422
-9.6 3.1 0.00495277
-9.6 3.2 0.00491102
-9.6 3.3 0.00486896
-9.6 3.4 0.00482663
-9.6 3.5 0.00478402
-9.6 3.6 0.00474116
-9.6 3.7 0.00469805
-9.6 3.8 0.00465472
-9.6 3.9 0.00461117
-9.6 4 0.00456742
-9.6 4.1 0.00452348
-9.6 4.2 0.00447937
-9.6 4.3 0.00443509
-9.6 4.4 0.00439067
-9.6 4.5 0.00434611
-9.6 4.6 0.00430143
-9.6 4.7 0.00425665
-9.6 4.8 0.00421176
-9.6 4.9 0.0041668
-9.6 5 0.00412176
-9.6 5.1 0.00407667
-9.6 5.2 0.00403154
-9.6 5.3 0.00398637
-9.6 5.4 0.00394118
-9.6 5.5 0.00389599
-9.6 5.6 0.0038508
-9.6 5.7 0.00380563
-9.6 5.8 0.00376049
-9.6 5.9 0.00371538
-9.6 6 0.00367033
-9.6 6.1 0.00362534
-9.6 6.2 0.00358042
-9.6 6.3 0.00353559
-9.6 6.4 0.00349086
-9.6 6.5 0.00344623
-9.6 6.6 0.00340172
-9.6 6.7 0.00335734
-9.6 6.8 0.00331309
-9.6 6.9 0.00326899
-9.6 7 0.00322505
-9.6 7.1 0.00318127
-9.6 7.2 0.00313767
-9.6 7.3 0.00309426
-9.6 7.4 0.00305104
-9.6 7.5 0.00300802
-9.6 7.6 0.00296521
-9.6 7.7 0.00292262
-9.6 7.8 0.00288026
-9.6 7.9 0.00283814
-9.6 8 0.00279626
-9.6 8.1 0.00275463
-9.6 8.2 0.00271325
-9.6 8.3 0.00267214
-9.6 8.4 0.00263131
-9.6 8.5 0.00259075
-9.6 8.6 0.00255048
-9.6 8.7 0.0025105
-9.6 8.8 0.00247081
-9.6 8.9 0.00243143
-9.6 9 0.00239236
-9.6 9.1 0.0023536
-9.6 9.2 0.00231517
-9.6 9.3 0.00227705
-9.6 9.4 0.00223927
-9.6 9.5 0.00220181
-9.6 9.6 0.0021647
-9.6 9.7 0.00212793
-9.6 9.8 0.0020915
-9.6 9.9 0.00205542
-9.6 10 0.0020197
-9.5 -10 0.00474692
-9.5 -9.9 0.00479005
-9.5 -9.8 0.00483292
-9.5 -9.7 0.00487553
-9.5 -9.6 0.00491786
-9.5 -9.5 0.0049599
-9.5 -9.4 0.00500162
-9.5 -9.3 0.00504303
-9.5 -9.2 0.0050841
-9.5 -9.1 0.00512482
-9.5 -9 0.00516518
-9.5 -8.9 0.00520517
-9.5 -8.8 0.00524476
-9.5 -8.7 0.00528395
-9.5 -8.6 0.00532272
-9.5 -8.5 0.00536107
-9.5 -8.4 0.00539896
-9.5 -8.3 0.00543641
-9.5 -8.2 0.00547338
-9.5 -8.1 0.00550987
-9.5 -8 0.00554586
-9.5 -7.9 0.00558134
-9.5 -7.8 0.0056163
-9.5 -7.7 0.00565073
-9.5 -7.6 0.00568461
-9.5 -7.5 0.00571793
-9.5 -7.4 0.00575068
-9.5 -7.3 0.00578285
-9.5 -7.2 0.00581442
-9.5 -7.1 0.00584538
-9.5 -7 0.00587573
-9.5 -6.9 0.00590544
-9.5 -6.8 0.00593451
-9.5 -6.7 0.00596294
-9.5 -6.6 0.00599069
-9.5 -6.5 0.00601778
-9.5 -6.4 0.00604418
-9.5 -6.3 0.00606989
-9.5 -6.2 0.0060949
-9.5 -6.1 0.00611919
-9.5 -6 0.00614276
-9.5 -5.9 0.0061656
-9.5 -5.8 0.0061877
-9.5 -5.7 0.00620905
-9.5 -5.6 0.00622964
-9.5 -5.5 0.00624947
-9.5 -5.4 0.00626852
-9.5 -5.3 0.0062868
-9.5 -5.2 0.00630428
-9.5 -5.1 0.00632098
-9.5 -5 0.00633687
-9.5 -4.9 0.00635196
-9.5 -4.8 0.00636623
-9.5 -4.7 0.00637968
-9.5 -4.6 0.00639231
-9.5 -4.5 0.00640411
-9.5 -4.4 0.00641508
-9.5 -4.3 0.00642521
-9.5 -4.2 0.0064345
-9.5 -4.1 0.00644294
-9.5 -4 0.00645053
-9.5 -3.9 0.00645727
-9.5 -3.8 0.00646316
-9.5 -3.7 0.00646819
-9.5 -3.6 0.00647236
-9.5 -3.5 0.00647567
-9.5 -3.4 0.00647811
-9.5 -3.3 0.0064797
-9.5 -3.2 0.00648042
-9.5 -3.1 0.00648027
-9.5 -3 0.00647927
-9.5 -2.9 0.00647739
-9.5 -2.8 0.00647466
-9.5 -2.7 0.00647106
-9.5 -2.6 0.00646661
-9.5 -2.5 0.00646129
-9.5 -2.4 0.00645512
-9.5 -2.3 0.0064481
-9.5 -2.2 0.00644022
-9.5 -2.1 0.0064315
-9.5 -2 0.00642193
-9.5 -1.9 0.00641152
-9.5 -1.8 0.00640027
-9.5 -1.7 0.00638819
-9.5 -1.6 0.00637529
-9.5 -1.5 0.00636156
-9.5 -1.4 0.00634702
-9.5 -1.3 0.00633166
-9.5 -1.2 0.0063155
-9.5 -1.1 0.00629854
-9.5 -1 0.00628079
-9.5 -0.9 0.00626226
-9.5 -0.8 0.00624294
-9.5 -0.7 0.00622286
-9.5 -0.6 0.00620201
-9.5 -0.5 0.00618041
-9.5 -0.4 0.00615807
-9.5 -0.3 0.00613498
-9.5 -0.2 0.00611117
-9.5 -0.1 0.00608664
-9.5 -1.87905e-14 0.0060614
-9.5 0.1 0.00603546
-9.5 0.2 0.00600883
-9.5 0.3 0.00598152
-9.5 0.4 0.00595353
-9.5 0.5 0.00592489
-9.5 0.6 0.00589561
-9.5 0.7 0.00586568
-9.5 0.8 0.00583513
-9.5 0.9 0.00580396
-9.5 1 0.00577219
-9.5 1.1 0.00573983
-9.5 1.2 0.00570689
-9.5 1.3 0.00567338
-9.5 1.4 0.00563932
-9.5 1.5 0.00560471
-9.5 1.6 0.00556957
-9.5 1.7 0.00553392
-9.5 1.8 0.00549776
-9.5 1.9 0.00546111
-9.5 2 0.00542398
-9.5 2.1 0.00538638
-9.5 2.2 0.00534833
-9.5 2.3 0.00530985
-9.5 2.4 0.00527093
-9.5 2.5 0.00523161
-9.5 2.6 0.00519188
-9.5 2.7 0.00515177
-9.5 2.8 0.00511129
-9.5 2.9 0.00507045
-9.5 3 0.00502927
-9.5 3.1 0.00498775
-9.5 3.2 0.00494592
-9.5 3.3 0.00490378
-9.5 3.4 0.00486136
-9.5 3.5 0.00481866
-9.5 3.6 0.0047757
-9.5 3.7 0.00473249
-9.5 3.8 0.00468905
-9.5 3.9 0.00464538
-9.5 4 0.00460151
-9.5 4.1 0.00455745
-9.5 4.2 0.0045132
-9.5 4.3 0.00446879
-9.5 4.4 0.00442423
-9.5 4.5 0.00437953
-9.5 4.6 0.0043347
-9.5 4.7 0.00428975
-9.5 4.8 0.00424471
-9.5 4.9 0.00419958
-9.5 5 0.00415438
-9.5 5.1 0.00410911
-9.5 5.2 0.0040638
-9.5 5.3 0.00401845
-9.5 5.4 0.00397308
-9.5 5.5 0.00392769
-9.5 5.6 0.00388231
-9.5 5.7 0.00383694
-9.5 5.8 0.00379159
-9.5 5.9 0.00374628
-9.5 6 0.00370102
-9.5 6.1 0.00365581
-9.5 6.2 0.00361068
-9.5 6.3 0.00356563
-9.5 6.4 0.00352067
-9.5 6.5 0.00347582
-9.5 6.6 0.00343108
-9.5 6.7 0.00338646
-9.5 6.8 0.00334198
-9.5 6.9 0.00329764
-9.5 7 0.00325346
-9.5 7.1 0.00320944
-9.5 7.2 0.00316559
-9.5 7.3 0.00312193
-9.5 7.4 0.00307846
-9.5 7.5 0.00303519
-9.5 7.6 0.00299213
-9.5 7.7 0.00294929
-9.5 7.8 0.00290667
-9.5 7.9 0.00286428
-9.5 8 0.00282214
-9.5 8.1 0.00278025
-9.5 8.2 0.00273861
-9.5 8.3 0.00269724
-9.5 8.4 0.00265614
-9.5 8.5 0.00261532
-9.5 8.6 0.00257478
-9.5 8.7 0.00253453
-9.5 8.8 0.00249457
-9.5 8.9 0.00245492
-9.5 9 0.00241558
-9.5 9.1 0.00237655
-9.5 9.2 0.00233784
-9.5 9.3 0.00229946
-9.5 9.4 0.0022614
-9.5 9.5 0.00222368
-9.5 9.6 0.00218629
-9.5 9.7 0.00214925
-9.5 9.8 0.00211255
-9.5 9.9 0.0020762
-9.5 10 0.00204021
-9.4 -10 0.00475241
-9.4 -9.9 0.0047958
-9.4 -9.8 0.00483894
-9.4 -9.7 0.00488182
-9.4 -9.6 0.00492442
-9.4 -9.5 0.00496674
-9.4 -9.4 0.00500874
-9.4 -9.3 0.00505043
-9.4 -9.2 0.00509179
-9.4 -9.1 0.0051328
-9.4 -9 0.00517345
-9.4 -8.9 0.00521373
-9.4 -8.8 0.00525363
-9.4 -8.7 0.00529312
-9.4 -8.6 0.00533219
-9.4 -8.5 0.00537084
-9.4 -8.4 0.00540905
-9.4 -8.3 0.00544681
-9.4 -8.2 0.00548409
-9.4 -8.1 0.0055209
-9.4 -8 0.00555721
-9.4 -7.9 0.00559301
-9.4 -7.8 0.0056283
-9.4 -7.7 0.00566305
-9.4 -7.6 0.00569726
-9.4 -7.5 0.00573091
-9.4 -7.4 0.00576399
-9.4 -7.3 0.00579649
-9.4 -7.2 0.00582839
-9.4 -7.1 0.00585969
-9.4 -7 0.00589037
-9.4 -6.9 0.00592042
-9.4 -6.8 0.00594983
-9.4 -6.7 0.00597859
-9.4 -6.6 0.00600669
-9.4 -6.5 0.00603412
-9.4 -6.4 0.00606086
-9.4 -6.3 0.00608691
-9.4 -6.2 0.00611226
-9.4 -6.1 0.00613689
-9.4 -6 0.0061608
-9.4 -5.9 0.00618398
-9.4 -5.8 0.00620642
-9.4 -5.7 0.00622812
-9.4 -5.6 0.00624905
-9.4 -5.5 0.00626922
-9.4 -5.4 0.00628861
-9.4 -5.3 0.00630723
-9.4 -5.2 0.00632505
-9.4 -5.1 0.00634208
-9.4 -5 0.00635831
-9.4 -4.9 0.00637373
-9.4 -4.8 0.00638834
-9.4 -4.7 0.00640212
-9.4 -4.6 0.00641508
-9.4 -4.5 0.00642721
-9.4 -4.4 0.0064385
-9.4 -4.3 0.00644896
-9.4 -4.2 0.00645857
-9.4 -4.1 0.00646733
-9.4 -4 0.00647524
-9.4 -3.9 0.00648229
-9.4 -3.8 0.00648849
-9.4 -3.7 0.00649382
-9.4 -3.6 0.0064983
-9.4 -3.5 0.00650191
-9.4 -3.4 0.00650466
-9.4 -3.3 0.00650654
-9.4 -3.2 0.00650755
-9.4 -3.1 0.00650769
-9.4 -3 0.00650697
-9.4 -2.9 0.00650538
-9.4 -2.8 0.00650292
-9.4 -2.7 0.0064996
-9.4 -2.6 0.00649541
-9.4 -2.5 0.00649036
-9.4 -2.4 0.00648445
-9.4 -2.3 0.00647768
-9.4 -2.2 0.00647006
-9.4 -2.1 0.00646158
-9.4 -2 0.00645225
-9.4 -1.9 0.00644208
-9.4 -1.8 0.00643107
-9.4 -1.7 0.00641922
-9.4 -1.6 0.00640653
-9.4 -1.5 0.00639302
-9.4 -1.4 0.00637869
-9.4 -1.3 0.00636354
-9.4 -1.2 0.00634758
-9.4 -1.1 0.00633082
-9.4 -1 0.00631326
-9.4 -0.9 0.00629491
-9.4 -0.8 0.00627577
-9.4 -0.7 0.00625586
-9.4 -0.6 0.00623518
-9.4 -0.5 0.00621374
-9.4 -0.4 0.00619155
-9.4 -0.3 0.00616861
-9.4 -0.2 0.00614494
-9.4 -0.1 0.00612055
-9.4 -1.87905e-14 0.00609544
-9.4 0.1 0.00606962
-9.4 0.2 0.00604311
-9.4 0.3 0.00601591
-9.4 0.4 0.00598803
-9.4 0.5 0.00595949
-9.4 0.6 0.00593029
-9.4 0.7 0.00590046
-9.4 0.8 0.00586998
-9.4 0.9 0.00583889
-9.4 1 0.00580719
-9.4 1.1 0.00577489
-9.4 1.2 0.005742
-9.4 1.3 0.00570854
-9.4 1.4 0.00567451
-9.4 1.5 0.00563994
-9.4 1.6 0.00560483
-9.4 1.7 0.0055692
-9.4 1.8 0.00553306
-9.4 1.9 0.00549642
-9.4 2 0.00545929
-9.4 2.1 0.00542169
-9.4 2.2 0.00538363
-9.4 2.3 0.00534513
-9.4 2.4 0.00530619
-9.4 2.5 0.00526683
-9.4 2.6 0.00522707
-9.4 2.7 0.00518692
-9.4 2.8 0.00514639
-9.4 2.9 0.0051055
-9.4 3 0.00506426
-9.4 3.1 0.00502268
-9.4 3.2 0.00498077
-9.4 3.3 0.00493856
-9.4 3.4 0.00489605
-9.4 3.5 0.00485327
-9.4 3.6 0.00481021
-9.4 3.7 0.0047669
-9.4 3.8 0.00472335
-9.4 3.9 0.00467957
-9.4 4 0.00463559
-9.4 4.1 0.0045914
-9.4 4.2 0.00454703
-9.4 4.3 0.00450249
-9.4 4.4 0.00445778
-9.4 4.5 0.00441294
-9.4 4.6 0.00436796
-9.4 4.7 0.00432286
-9.4 4.8 0.00427766
-9.4 4.9 0.00423237
-9.4 5 0.004187
-9.4 5.1 0.00414157
-9.4 5.2 0.00409608
-9.4 5.3 0.00405055
-9.4 5.4 0.00400499
-9.4 5.5 0.00395941
-9.4 5.6 0.00391384
-9.4 5.7 0.00386827
-9.4 5.8 0.00382272
-9.4 5.9 0.00377721
-9.4 6 0.00373174
-9.4 6.1 0.00368632
-9.4 6.2 0.00364098
-9.4 6.3 0.00359571
-9.4 6.4 0.00355053
-9.4 6.5 0.00350545
-9.4 6.6 0.00346048
-9.4 6.7 0.00341563
-9.4 6.8 0.00337092
-9.4 6.9 0.00332634
-9.4 7 0.00328192
-9.4 7.1 0.00323766
-9.4 7.2 0.00319357
-9.4 7.3 0.00314967
-9.4 7.4 0.00310595
-9.4 7.5 0.00306243
-9.4 7.6 0.00301911
-9.4 7.7 0.00297601
-9.4 7.8 0.00293314
-9.4 7.9 0.0028905
-9.4 8 0.0028481
-9.4 8.1 0.00280595
-9.4 8.2 0.00276405
-9.4 8.3 0.00272241
-9.4 8.4 0.00268105
-9.4 8.5 0.00263996
-9.4 8.6 0.00259915
-9.4 8.7 0.00255864
-9.4 8.8 0.00251841
-9.4 8.9 0.0024785
-9.4 9 0.00243888
-9.4 9.1 0.00239959
-9.4 9.2 0.00236061
-9.4 9.3 0.00232195
-9.4 9.4 0.00228362
-9.4 9.5 0.00224563
-9.4 9.6 0.00220797
-9.4 9.7 0.00217066
-9.4 9.8 0.00213369
-9.4 9.9 0.00209707
-9.4 10 0.0020608
-9.3 -10 0.00475762
-9.3 -9.9 0.00480127
-9.3 -9.8 0.00484468
-9.3 -9.7 0.00488783
-9.3 -9.6 0.0049307
-9.3 -9.5 0.00497329
-9.3 -9.4 0.00501557
-9.3 -9.3 0.00505755
-9.3 -9.2 0.00509919
-9.3 -9.1 0.00514049
-9.3 -9 0.00518143
-9.3 -8.9 0.005222
-9.3 -8.8 0.00526219
-9.3 -8.7 0.00530199
-9.3 -8.6 0.00534137
-9.3 -8.5 0.00538032
-9.3 -8.4 0.00541884
-9.3 -8.3 0.0054569
-9.3 -8.2 0.0054945
-9.3 -8.1 0.00553162
-9.3 -8 0.00556825
-9.3 -7.9 0.00560438
-9.3 -7.8 0.00563998
-9.3 -7.7 0.00567506
-9.3 -7.6 0.00570959
-9.3 -7.5 0.00574357
-9.3 -7.4 0.00577698
-9.3 -7.3 0.00580981
-9.3 -7.2 0.00584205
-9.3 -7.1 0.00587368
-9.3 -7 0.0059047
-9.3 -6.9 0.00593508
-9.3 -6.8 0.00596483
-9.3 -6.7 0.00599393
-9.3 -6.6 0.00602237
-9.3 -6.5 0.00605014
-9.3 -6.4 0.00607722
-9.3 -6.3 0.00610362
-9.3 -6.2 0.0061293
-9.3 -6.1 0.00615428
-9.3 -6 0.00617854
-9.3 -5.9 0.00620206
-9.3 -5.8 0.00622484
-9.3 -5.7 0.00624687
-9.3 -5.6 0.00626815
-9.3 -5.5 0.00628866
-9.3 -5.4 0.0063084
-9.3 -5.3 0.00632735
-9.3 -5.2 0.00634551
-9.3 -5.1 0.00636288
-9.3 -5 0.00637945
-9.3 -4.9 0.0063952
-9.3 -4.8 0.00641014
-9.3 -4.7 0.00642426
-9.3 -4.6 0.00643755
-9.3 -4.5 0.00645001
-9.3 -4.4 0.00646163
-9.3 -4.3 0.00647241
-9.3 -4.2 0.00648234
-9.3 -4.1 0.00649142
-9.3 -4 0.00649965
-9.3 -3.9 0.00650702
-9.3 -3.8 0.00651353
-9.3 -3.7 0.00651918
-9.3 -3.6 0.00652396
-9.3 -3.5 0.00652787
-9.3 -3.4 0.00653092
-9.3 -3.3 0.0065331
-9.3 -3.2 0.00653441
-9.3 -3.1 0.00653484
-9.3 -3 0.00653441
-9.3 -2.9 0.0065331
-9.3 -2.8 0.00653092
-9.3 -2.7 0.00652787
-9.3 -2.6 0.00652396
-9.3 -2.5 0.00651918